 # Cell: monoclinic
 
        54  atoms
         1  atom types
 
      0.00000000      19.20351600  xlo xhi
      0.00000000      30.76257000  ylo yhi
      0.00000000      22.54290417  zlo zhi
      0.00000000      -3.37278843       0.00000000  xy xz yz
 
Atoms
 
1 1 1.354360304 2.563543693 1.878577014
2 1 3.922549029 7.690641371 5.635726897
3 1 7.755532304 2.563543693 1.878577014
4 1 10.32372103 7.690641371 5.635726897
5 1 14.1567043 2.563543693 1.878577014
6 1 16.72489303 7.690641371 5.635726897
7 1 1.354360304 12.81773369 1.878577014
8 1 3.922549029 17.94483137 5.635726897
9 1 7.755532304 12.81773369 1.878577014
10 1 10.32372103 17.94483137 5.635726897
11 1 14.1567043 12.81773369 1.878577014
12 1 16.72489303 17.94483137 5.635726897
13 1 1.354360304 23.07192369 1.878577014
14 1 3.922549029 28.19902137 5.635726897
15 1 7.755532304 23.07192369 1.878577014
16 1 10.32372103 28.19902137 5.635726897
17 1 14.1567043 23.07192369 1.878577014
18 1 16.72489303 28.19902137 5.635726897
19 1 0.2300974943 2.563543693 9.392878404
20 1 2.798286219 7.690641371 13.15002829
21 1 6.631269494 2.563543693 9.392878404
22 1 9.199458219 7.690641371 13.15002829
23 1 13.03244149 2.563543693 9.392878404
24 1 15.60063022 7.690641371 13.15002829
25 1 0.2300974943 12.81773369 9.392878404
26 1 2.798286219 17.94483137 13.15002829
27 1 6.631269494 12.81773369 9.392878404
28 1 9.199458219 17.94483137 13.15002829
29 1 13.03244149 12.81773369 9.392878404
30 1 15.60063022 17.94483137 13.15002829
31 1 0.2300974943 23.07192369 9.392878404
32 1 2.798286219 28.19902137 13.15002829
33 1 6.631269494 23.07192369 9.392878404
34 1 9.199458219 28.19902137 13.15002829
35 1 13.03244149 23.07192369 9.392878404
36 1 15.60063022 28.19902137 13.15002829
37 1 -0.8941653157 2.563543693 16.90717979
38 1 1.674023409 7.690641371 20.66432968
39 1 5.507006684 2.563543693 16.90717979
40 1 8.075195409 7.690641371 20.66432968
41 1 11.90817868 2.563543693 16.90717979
42 1 14.47636741 7.690641371 20.66432968
43 1 -0.8941653157 12.81773369 16.90717979
44 1 1.674023409 17.94483137 20.66432968
45 1 5.507006684 12.81773369 16.90717979
46 1 8.075195409 17.94483137 20.66432968
47 1 11.90817868 12.81773369 16.90717979
48 1 14.47636741 17.94483137 20.66432968
49 1 -0.8941653157 23.07192369 16.90717979
50 1 1.674023409 28.19902137 20.66432968
51 1 5.507006684 23.07192369 16.90717979
52 1 8.075195409 28.19902137 20.66432968
53 1 11.90817868 23.07192369 16.90717979
54 1 14.47636741 28.19902137 20.66432968
