LAMMPS Description

    56 atoms

     4 atom types

# Cell: monoclinic
      0.00000000      6.54166700    xlo xhi
      0.00000000     10.25412000    ylo yhi
      0.00000000      7.51437956    zlo zhi
      0.00000000     -1.12430802      0.00000000    xy xz yz

Masses

1 12.011 # C
2 14.007 # N
3 15.999 # O
4 1.0079 # H

Atoms

     1     1      2.75063775      3.78875624      1.63388471
     2     1      1.17980775      3.12592624      3.53095471
     3     1     -0.04193225      1.33829624      2.12329471
     4     1      1.52888775      2.00112624      0.22622471
     5     2      1.53444775      4.00250624      2.41485471
     6     2      0.05732775      2.21114624      3.29630471
     7     2      1.17424775      1.12454624      1.34233471
     8     2      2.65137775      2.91590624      0.46088471
     9     2      0.49118775      4.71979624      1.79471471
    10     2     -1.07915225      2.31989624      4.12463471
    11     2      2.21749775      0.40725624      1.96247471
    12     2      3.78785775      2.80715624     -0.36745529
    13     3      0.74061775      5.28942624      0.73019471
    14     3     -0.60359225      4.75338624      2.36521471
    15     3     -1.00421225      3.06380624      5.10426471
    16     3     -2.06488225      1.64475624      3.81761471
    17     3      1.96806775     -0.16238376      3.02698471
    18     3      3.31228775      0.37365624      1.39196471
    19     3      3.71291775      2.06325624     -1.34708529
    20     3      4.77358775      3.48230624     -0.06043529
    21     4      3.11026775      4.77296624      1.32021471
    22     4      3.50736775      3.40082624      2.31534471
    23     4      1.02703775      3.76314624      4.40554471
    24     4      2.05024775      2.51138624      3.76888471
    25     4     -0.79865225      1.72624624      1.44183471
    26     4     -0.40156225      0.35409624      2.43696471
    27     4      0.65845775      2.61566624     -0.01170529
    28     4      1.68166775      1.36390624     -0.64836529
    29     1      2.66671673      8.91578624      5.88052427
    30     1      4.23754673      8.25300624      3.98344427
    31     1      5.45930673      6.46534624      5.39105427
    32     1      3.88851673      7.12817624      7.28814427
    33     2      3.88288673      9.12957624      5.09955427
    34     2      5.36005673      7.33826624      4.21809427
    35     2      4.24314673      6.25159624      6.17203427
    36     2      2.76602673      8.04294624      7.05353427
    37     2      4.92611673      9.84690624      5.71968427
    38     2      6.49649673      7.44698624      3.38970427
    39     2      3.19986673      5.53433624      5.55189427
    40     2      1.62955673      7.93415624      7.88188427
    41     3      4.67665673     10.41654624      6.78419427
    42     3      6.02088673      9.88054624      5.14915427
    43     3      6.42151673      8.19087624      2.41007427
    44     3      7.48221673      6.77180624      3.69666427
    45     3      3.44925673      4.96472624      4.48734427
    46     3      2.10508673      5.50074624      6.12241427
    47     3      1.70452673      7.19025624      8.86150427
    48     3      0.64381673      8.60928624      7.57488427
    49     4      2.30704673      9.89997624      6.19419427
    50     4      1.91000673      8.52780624      5.19907427
    51     4      4.39031673      8.89024624      3.10885427
    52     4      3.36712673      7.63844624      3.74550427
    53     4      6.21606673      6.85323624      6.07251427
    54     4      5.81891673      5.48115624      5.07732427
    55     4      4.75896673      7.74271624      7.52603427
    56     4      3.73578673      6.49094624      8.16274427
