 # Cell: monoclinic
 
        4200  atoms
           4  atom types
 
      0.00000000      32.70833500  xlo xhi
      0.00000000      51.27060000  ylo yhi
      0.00000000      22.54313868  zlo zhi
      0.00000000      -3.37292406       0.00000000  xy xz yz
 
Atoms
 
       1    1        2.75063775       3.78875624       1.63388471
       2    1        1.17980775       3.12592624       3.53095471
       3    1       -0.04193225       1.33829624       2.12329471
       4    1        1.52888775       2.00112624       0.22622471
       5    2        1.53444775       4.00250624       2.41485471
       6    2        0.05732775       2.21114624       3.29630471
       7    2        1.17424775       1.12454624       1.34233471
       8    2        2.65137775       2.91590624       0.46088471
       9    2        0.49118775       4.71979624       1.79471471
      10    2       -1.07915225       2.31989624       4.12463471
      11    2        2.21749775       0.40725624       1.96247471
      12    2        3.78785775       2.80715624      -0.36745529
      13    3        0.74061775       5.28942624       0.73019471
      14    3       -0.60359225       4.75338624       2.36521471
      15    3       -1.00421225       3.06380624       5.10426471
      16    3       -2.06488225       1.64475624       3.81761471
      17    3        1.96806775      -0.16238376       3.02698471
      18    3        3.31228775       0.37365624       1.39196471
      19    3        3.71291775       2.06325624      -1.34708529
      20    3        4.77358775       3.48230624      -0.06043529
      21    4        3.11026775       4.77296624       1.32021471
      22    4        3.50736775       3.40082624       2.31534471
      23    4        1.02703775       3.76314624       4.40554471
      24    4        2.05024775       2.51138624       3.76888471
      25    4       -0.79865225       1.72624624       1.44183471
      26    4       -0.40156225       0.35409624       2.43696471
      27    4        0.65845775       2.61566624      -0.01170529
      28    4        1.68166775       1.36390624      -0.64836529
      29    1        2.66671673       8.91578624       5.88052427
      30    1        4.23754673       8.25300624       3.98344427
      31    1        5.45930673       6.46534624       5.39105427
      32    1        3.88851673       7.12817624       7.28814427
      33    2        3.88288673       9.12957624       5.09955427
      34    2        5.36005673       7.33826624       4.21809427
      35    2        4.24314673       6.25159624       6.17203427
      36    2        2.76602673       8.04294624       7.05353427
      37    2        4.92611673       9.84690624       5.71968427
      38    2        6.49649673       7.44698624       3.38970427
      39    2        3.19986673       5.53433624       5.55189427
      40    2        1.62955673       7.93415624       7.88188427
      41    3        4.67665673      10.41654624       6.78419427
      42    3        6.02088673       9.88054624       5.14915427
      43    3        6.42151673       8.19087624       2.41007427
      44    3        7.48221673       6.77180624       3.69666427
      45    3        3.44925673       4.96472624       4.48734427
      46    3        2.10508673       5.50074624       6.12241427
      47    3        1.70452673       7.19025624       8.86150427
      48    3        0.64381673       8.60928624       7.57488427
      49    4        2.30704673       9.89997624       6.19419427
      50    4        1.91000673       8.52780624       5.19907427
      51    4        4.39031673       8.89024624       3.10885427
      52    4        3.36712673       7.63844624       3.74550427
      53    4        6.21606673       6.85323624       6.07251427
      54    4        5.81891673       5.48115624       5.07732427
      55    4        4.75896673       7.74271624       7.52603427
      56    4        3.73578673       6.49094624       8.16274427
      57    1        9.29230475       3.78875624       1.63388471
      58    1        7.72147475       3.12592624       3.53095471
      59    1        6.49973475       1.33829624       2.12329471
      60    1        8.07055475       2.00112624       0.22622471
      61    2        8.07611475       4.00250624       2.41485471
      62    2        6.59899475       2.21114624       3.29630471
      63    2        7.71591475       1.12454624       1.34233471
      64    2        9.19304475       2.91590624       0.46088471
      65    2        7.03285475       4.71979624       1.79471471
      66    2        5.46251475       2.31989624       4.12463471
      67    2        8.75916475       0.40725624       1.96247471
      68    2       10.32952475       2.80715624      -0.36745529
      69    3        7.28228475       5.28942624       0.73019471
      70    3        5.93807475       4.75338624       2.36521471
      71    3        5.53745475       3.06380624       5.10426471
      72    3        4.47678475       1.64475624       3.81761471
      73    3        8.50973475      -0.16238376       3.02698471
      74    3        9.85395475       0.37365624       1.39196471
      75    3       10.25458475       2.06325624      -1.34708529
      76    3       11.31525475       3.48230624      -0.06043529
      77    4        9.65193475       4.77296624       1.32021471
      78    4       10.04903475       3.40082624       2.31534471
      79    4        7.56870475       3.76314624       4.40554471
      80    4        8.59191475       2.51138624       3.76888471
      81    4        5.74301475       1.72624624       1.44183471
      82    4        6.14010475       0.35409624       2.43696471
      83    4        7.20012475       2.61566624      -0.01170529
      84    4        8.22333475       1.36390624      -0.64836529
      85    1        9.20838373       8.91578624       5.88052427
      86    1       10.77921373       8.25300624       3.98344427
      87    1       12.00097373       6.46534624       5.39105427
      88    1       10.43018373       7.12817624       7.28814427
      89    2       10.42455373       9.12957624       5.09955427
      90    2       11.90172373       7.33826624       4.21809427
      91    2       10.78481373       6.25159624       6.17203427
      92    2        9.30769373       8.04294624       7.05353427
      93    2       11.46778373       9.84690624       5.71968427
      94    2       13.03816373       7.44698624       3.38970427
      95    2        9.74153373       5.53433624       5.55189427
      96    2        8.17122373       7.93415624       7.88188427
      97    3       11.21832373      10.41654624       6.78419427
      98    3       12.56255373       9.88054624       5.14915427
      99    3       12.96318373       8.19087624       2.41007427
     100    3       14.02388373       6.77180624       3.69666427
     101    3        9.99092373       4.96472624       4.48734427
     102    3        8.64675373       5.50074624       6.12241427
     103    3        8.24619373       7.19025624       8.86150427
     104    3        7.18548373       8.60928624       7.57488427
     105    4        8.84871373       9.89997624       6.19419427
     106    4        8.45167373       8.52780624       5.19907427
     107    4       10.93198373       8.89024624       3.10885427
     108    4        9.90879373       7.63844624       3.74550427
     109    4       12.75773373       6.85323624       6.07251427
     110    4       12.36058373       5.48115624       5.07732427
     111    4       11.30063373       7.74271624       7.52603427
     112    4       10.27745373       6.49094624       8.16274427
     113    1       15.83397175       3.78875624       1.63388471
     114    1       14.26314175       3.12592624       3.53095471
     115    1       13.04140175       1.33829624       2.12329471
     116    1       14.61222175       2.00112624       0.22622471
     117    2       14.61778175       4.00250624       2.41485471
     118    2       13.14066175       2.21114624       3.29630471
     119    2       14.25758175       1.12454624       1.34233471
     120    2       15.73471175       2.91590624       0.46088471
     121    2       13.57452175       4.71979624       1.79471471
     122    2       12.00418175       2.31989624       4.12463471
     123    2       15.30083175       0.40725624       1.96247471
     124    2       16.87119175       2.80715624      -0.36745529
     125    3       13.82395175       5.28942624       0.73019471
     126    3       12.47974175       4.75338624       2.36521471
     127    3       12.07912175       3.06380624       5.10426471
     128    3       11.01845175       1.64475624       3.81761471
     129    3       15.05140175      -0.16238376       3.02698471
     130    3       16.39562175       0.37365624       1.39196471
     131    3       16.79625175       2.06325624      -1.34708529
     132    3       17.85692175       3.48230624      -0.06043529
     133    4       16.19360175       4.77296624       1.32021471
     134    4       16.59070175       3.40082624       2.31534471
     135    4       14.11037175       3.76314624       4.40554471
     136    4       15.13358175       2.51138624       3.76888471
     137    4       12.28468175       1.72624624       1.44183471
     138    4       12.68177175       0.35409624       2.43696471
     139    4       13.74179175       2.61566624      -0.01170529
     140    4       14.76500175       1.36390624      -0.64836529
     141    1       15.75005073       8.91578624       5.88052427
     142    1       17.32088073       8.25300624       3.98344427
     143    1       18.54264073       6.46534624       5.39105427
     144    1       16.97185073       7.12817624       7.28814427
     145    2       16.96622073       9.12957624       5.09955427
     146    2       18.44339073       7.33826624       4.21809427
     147    2       17.32648073       6.25159624       6.17203427
     148    2       15.84936073       8.04294624       7.05353427
     149    2       18.00945073       9.84690624       5.71968427
     150    2       19.57983073       7.44698624       3.38970427
     151    2       16.28320073       5.53433624       5.55189427
     152    2       14.71289073       7.93415624       7.88188427
     153    3       17.75999073      10.41654624       6.78419427
     154    3       19.10422073       9.88054624       5.14915427
     155    3       19.50485073       8.19087624       2.41007427
     156    3       20.56555073       6.77180624       3.69666427
     157    3       16.53259073       4.96472624       4.48734427
     158    3       15.18842073       5.50074624       6.12241427
     159    3       14.78786073       7.19025624       8.86150427
     160    3       13.72715073       8.60928624       7.57488427
     161    4       15.39038073       9.89997624       6.19419427
     162    4       14.99334073       8.52780624       5.19907427
     163    4       17.47365073       8.89024624       3.10885427
     164    4       16.45046073       7.63844624       3.74550427
     165    4       19.29940073       6.85323624       6.07251427
     166    4       18.90225073       5.48115624       5.07732427
     167    4       17.84230073       7.74271624       7.52603427
     168    4       16.81912073       6.49094624       8.16274427
     169    1       22.37563875       3.78875624       1.63388471
     170    1       20.80480875       3.12592624       3.53095471
     171    1       19.58306875       1.33829624       2.12329471
     172    1       21.15388875       2.00112624       0.22622471
     173    2       21.15944875       4.00250624       2.41485471
     174    2       19.68232875       2.21114624       3.29630471
     175    2       20.79924875       1.12454624       1.34233471
     176    2       22.27637875       2.91590624       0.46088471
     177    2       20.11618875       4.71979624       1.79471471
     178    2       18.54584875       2.31989624       4.12463471
     179    2       21.84249875       0.40725624       1.96247471
     180    2       23.41285875       2.80715624      -0.36745529
     181    3       20.36561875       5.28942624       0.73019471
     182    3       19.02140875       4.75338624       2.36521471
     183    3       18.62078875       3.06380624       5.10426471
     184    3       17.56011875       1.64475624       3.81761471
     185    3       21.59306875      -0.16238376       3.02698471
     186    3       22.93728875       0.37365624       1.39196471
     187    3       23.33791875       2.06325624      -1.34708529
     188    3       24.39858875       3.48230624      -0.06043529
     189    4       22.73526875       4.77296624       1.32021471
     190    4       23.13236875       3.40082624       2.31534471
     191    4       20.65203875       3.76314624       4.40554471
     192    4       21.67524875       2.51138624       3.76888471
     193    4       18.82634875       1.72624624       1.44183471
     194    4       19.22343875       0.35409624       2.43696471
     195    4       20.28345875       2.61566624      -0.01170529
     196    4       21.30666875       1.36390624      -0.64836529
     197    1       22.29171773       8.91578624       5.88052427
     198    1       23.86254773       8.25300624       3.98344427
     199    1       25.08430773       6.46534624       5.39105427
     200    1       23.51351773       7.12817624       7.28814427
     201    2       23.50788773       9.12957624       5.09955427
     202    2       24.98505773       7.33826624       4.21809427
     203    2       23.86814773       6.25159624       6.17203427
     204    2       22.39102773       8.04294624       7.05353427
     205    2       24.55111773       9.84690624       5.71968427
     206    2       26.12149773       7.44698624       3.38970427
     207    2       22.82486773       5.53433624       5.55189427
     208    2       21.25455773       7.93415624       7.88188427
     209    3       24.30165773      10.41654624       6.78419427
     210    3       25.64588773       9.88054624       5.14915427
     211    3       26.04651773       8.19087624       2.41007427
     212    3       27.10721773       6.77180624       3.69666427
     213    3       23.07425773       4.96472624       4.48734427
     214    3       21.73008773       5.50074624       6.12241427
     215    3       21.32952773       7.19025624       8.86150427
     216    3       20.26881773       8.60928624       7.57488427
     217    4       21.93204773       9.89997624       6.19419427
     218    4       21.53500773       8.52780624       5.19907427
     219    4       24.01531773       8.89024624       3.10885427
     220    4       22.99212773       7.63844624       3.74550427
     221    4       25.84106773       6.85323624       6.07251427
     222    4       25.44391773       5.48115624       5.07732427
     223    4       24.38396773       7.74271624       7.52603427
     224    4       23.36078773       6.49094624       8.16274427
     225    1       28.91730575       3.78875624       1.63388471
     226    1       27.34647575       3.12592624       3.53095471
     227    1       26.12473575       1.33829624       2.12329471
     228    1       27.69555575       2.00112624       0.22622471
     229    2       27.70111575       4.00250624       2.41485471
     230    2       26.22399575       2.21114624       3.29630471
     231    2       27.34091575       1.12454624       1.34233471
     232    2       28.81804575       2.91590624       0.46088471
     233    2       26.65785575       4.71979624       1.79471471
     234    2       25.08751575       2.31989624       4.12463471
     235    2       28.38416575       0.40725624       1.96247471
     236    2       29.95452575       2.80715624      -0.36745529
     237    3       26.90728575       5.28942624       0.73019471
     238    3       25.56307575       4.75338624       2.36521471
     239    3       25.16245575       3.06380624       5.10426471
     240    3       24.10178575       1.64475624       3.81761471
     241    3       28.13473575      -0.16238376       3.02698471
     242    3       29.47895575       0.37365624       1.39196471
     243    3       29.87958575       2.06325624      -1.34708529
     244    3       30.94025575       3.48230624      -0.06043529
     245    4       29.27693575       4.77296624       1.32021471
     246    4       29.67403575       3.40082624       2.31534471
     247    4       27.19370575       3.76314624       4.40554471
     248    4       28.21691575       2.51138624       3.76888471
     249    4       25.36801575       1.72624624       1.44183471
     250    4       25.76510575       0.35409624       2.43696471
     251    4       26.82512575       2.61566624      -0.01170529
     252    4       27.84833575       1.36390624      -0.64836529
     253    1       28.83338473       8.91578624       5.88052427
     254    1       30.40421473       8.25300624       3.98344427
     255    1       31.62597473       6.46534624       5.39105427
     256    1       30.05518473       7.12817624       7.28814427
     257    2       30.04955473       9.12957624       5.09955427
     258    2       31.52672473       7.33826624       4.21809427
     259    2       30.40981473       6.25159624       6.17203427
     260    2       28.93269473       8.04294624       7.05353427
     261    2       31.09278473       9.84690624       5.71968427
     262    2       32.66316473       7.44698624       3.38970427
     263    2       29.36653473       5.53433624       5.55189427
     264    2       27.79622473       7.93415624       7.88188427
     265    3       30.84332473      10.41654624       6.78419427
     266    3       32.18755473       9.88054624       5.14915427
     267    3       32.58818473       8.19087624       2.41007427
     268    3       33.64888473       6.77180624       3.69666427
     269    3       29.61592473       4.96472624       4.48734427
     270    3       28.27175473       5.50074624       6.12241427
     271    3       27.87119473       7.19025624       8.86150427
     272    3       26.81048473       8.60928624       7.57488427
     273    4       28.47371473       9.89997624       6.19419427
     274    4       28.07667473       8.52780624       5.19907427
     275    4       30.55698473       8.89024624       3.10885427
     276    4       29.53379473       7.63844624       3.74550427
     277    4       32.38273473       6.85323624       6.07251427
     278    4       31.98558473       5.48115624       5.07732427
     279    4       30.92563473       7.74271624       7.52603427
     280    4       29.90245473       6.49094624       8.16274427
     281    1        2.75063775      14.04287624       1.63388471
     282    1        1.17980775      13.38004624       3.53095471
     283    1       -0.04193225      11.59241624       2.12329471
     284    1        1.52888775      12.25524624       0.22622471
     285    2        1.53444775      14.25662624       2.41485471
     286    2        0.05732775      12.46526624       3.29630471
     287    2        1.17424775      11.37866624       1.34233471
     288    2        2.65137775      13.17002624       0.46088471
     289    2        0.49118775      14.97391624       1.79471471
     290    2       -1.07915225      12.57401624       4.12463471
     291    2        2.21749775      10.66137624       1.96247471
     292    2        3.78785775      13.06127624      -0.36745529
     293    3        0.74061775      15.54354624       0.73019471
     294    3       -0.60359225      15.00750624       2.36521471
     295    3       -1.00421225      13.31792624       5.10426471
     296    3       -2.06488225      11.89887624       3.81761471
     297    3        1.96806775      10.09173624       3.02698471
     298    3        3.31228775      10.62777624       1.39196471
     299    3        3.71291775      12.31737624      -1.34708529
     300    3        4.77358775      13.73642624      -0.06043529
     301    4        3.11026775      15.02708624       1.32021471
     302    4        3.50736775      13.65494624       2.31534471
     303    4        1.02703775      14.01726624       4.40554471
     304    4        2.05024775      12.76550624       3.76888471
     305    4       -0.79865225      11.98036624       1.44183471
     306    4       -0.40156225      10.60821624       2.43696471
     307    4        0.65845775      12.86978624      -0.01170529
     308    4        1.68166775      11.61802624      -0.64836529
     309    1        2.66671673      19.16990624       5.88052427
     310    1        4.23754673      18.50712624       3.98344427
     311    1        5.45930673      16.71946624       5.39105427
     312    1        3.88851673      17.38229624       7.28814427
     313    2        3.88288673      19.38369624       5.09955427
     314    2        5.36005673      17.59238624       4.21809427
     315    2        4.24314673      16.50571624       6.17203427
     316    2        2.76602673      18.29706624       7.05353427
     317    2        4.92611673      20.10102624       5.71968427
     318    2        6.49649673      17.70110624       3.38970427
     319    2        3.19986673      15.78845624       5.55189427
     320    2        1.62955673      18.18827624       7.88188427
     321    3        4.67665673      20.67066624       6.78419427
     322    3        6.02088673      20.13466624       5.14915427
     323    3        6.42151673      18.44499624       2.41007427
     324    3        7.48221673      17.02592624       3.69666427
     325    3        3.44925673      15.21884624       4.48734427
     326    3        2.10508673      15.75486624       6.12241427
     327    3        1.70452673      17.44437624       8.86150427
     328    3        0.64381673      18.86340624       7.57488427
     329    4        2.30704673      20.15409624       6.19419427
     330    4        1.91000673      18.78192624       5.19907427
     331    4        4.39031673      19.14436624       3.10885427
     332    4        3.36712673      17.89256624       3.74550427
     333    4        6.21606673      17.10735624       6.07251427
     334    4        5.81891673      15.73527624       5.07732427
     335    4        4.75896673      17.99683624       7.52603427
     336    4        3.73578673      16.74506624       8.16274427
     337    1        9.29230475      14.04287624       1.63388471
     338    1        7.72147475      13.38004624       3.53095471
     339    1        6.49973475      11.59241624       2.12329471
     340    1        8.07055475      12.25524624       0.22622471
     341    2        8.07611475      14.25662624       2.41485471
     342    2        6.59899475      12.46526624       3.29630471
     343    2        7.71591475      11.37866624       1.34233471
     344    2        9.19304475      13.17002624       0.46088471
     345    2        7.03285475      14.97391624       1.79471471
     346    2        5.46251475      12.57401624       4.12463471
     347    2        8.75916475      10.66137624       1.96247471
     348    2       10.32952475      13.06127624      -0.36745529
     349    3        7.28228475      15.54354624       0.73019471
     350    3        5.93807475      15.00750624       2.36521471
     351    3        5.53745475      13.31792624       5.10426471
     352    3        4.47678475      11.89887624       3.81761471
     353    3        8.50973475      10.09173624       3.02698471
     354    3        9.85395475      10.62777624       1.39196471
     355    3       10.25458475      12.31737624      -1.34708529
     356    3       11.31525475      13.73642624      -0.06043529
     357    4        9.65193475      15.02708624       1.32021471
     358    4       10.04903475      13.65494624       2.31534471
     359    4        7.56870475      14.01726624       4.40554471
     360    4        8.59191475      12.76550624       3.76888471
     361    4        5.74301475      11.98036624       1.44183471
     362    4        6.14010475      10.60821624       2.43696471
     363    4        7.20012475      12.86978624      -0.01170529
     364    4        8.22333475      11.61802624      -0.64836529
     365    1        9.20838373      19.16990624       5.88052427
     366    1       10.77921373      18.50712624       3.98344427
     367    1       12.00097373      16.71946624       5.39105427
     368    1       10.43018373      17.38229624       7.28814427
     369    2       10.42455373      19.38369624       5.09955427
     370    2       11.90172373      17.59238624       4.21809427
     371    2       10.78481373      16.50571624       6.17203427
     372    2        9.30769373      18.29706624       7.05353427
     373    2       11.46778373      20.10102624       5.71968427
     374    2       13.03816373      17.70110624       3.38970427
     375    2        9.74153373      15.78845624       5.55189427
     376    2        8.17122373      18.18827624       7.88188427
     377    3       11.21832373      20.67066624       6.78419427
     378    3       12.56255373      20.13466624       5.14915427
     379    3       12.96318373      18.44499624       2.41007427
     380    3       14.02388373      17.02592624       3.69666427
     381    3        9.99092373      15.21884624       4.48734427
     382    3        8.64675373      15.75486624       6.12241427
     383    3        8.24619373      17.44437624       8.86150427
     384    3        7.18548373      18.86340624       7.57488427
     385    4        8.84871373      20.15409624       6.19419427
     386    4        8.45167373      18.78192624       5.19907427
     387    4       10.93198373      19.14436624       3.10885427
     388    4        9.90879373      17.89256624       3.74550427
     389    4       12.75773373      17.10735624       6.07251427
     390    4       12.36058373      15.73527624       5.07732427
     391    4       11.30063373      17.99683624       7.52603427
     392    4       10.27745373      16.74506624       8.16274427
     393    1       15.83397175      14.04287624       1.63388471
     394    1       14.26314175      13.38004624       3.53095471
     395    1       13.04140175      11.59241624       2.12329471
     396    1       14.61222175      12.25524624       0.22622471
     397    2       14.61778175      14.25662624       2.41485471
     398    2       13.14066175      12.46526624       3.29630471
     399    2       14.25758175      11.37866624       1.34233471
     400    2       15.73471175      13.17002624       0.46088471
     401    2       13.57452175      14.97391624       1.79471471
     402    2       12.00418175      12.57401624       4.12463471
     403    2       15.30083175      10.66137624       1.96247471
     404    2       16.87119175      13.06127624      -0.36745529
     405    3       13.82395175      15.54354624       0.73019471
     406    3       12.47974175      15.00750624       2.36521471
     407    3       12.07912175      13.31792624       5.10426471
     408    3       11.01845175      11.89887624       3.81761471
     409    3       15.05140175      10.09173624       3.02698471
     410    3       16.39562175      10.62777624       1.39196471
     411    3       16.79625175      12.31737624      -1.34708529
     412    3       17.85692175      13.73642624      -0.06043529
     413    4       16.19360175      15.02708624       1.32021471
     414    4       16.59070175      13.65494624       2.31534471
     415    4       14.11037175      14.01726624       4.40554471
     416    4       15.13358175      12.76550624       3.76888471
     417    4       12.28468175      11.98036624       1.44183471
     418    4       12.68177175      10.60821624       2.43696471
     419    4       13.74179175      12.86978624      -0.01170529
     420    4       14.76500175      11.61802624      -0.64836529
     421    1       15.75005073      19.16990624       5.88052427
     422    1       17.32088073      18.50712624       3.98344427
     423    1       18.54264073      16.71946624       5.39105427
     424    1       16.97185073      17.38229624       7.28814427
     425    2       16.96622073      19.38369624       5.09955427
     426    2       18.44339073      17.59238624       4.21809427
     427    2       17.32648073      16.50571624       6.17203427
     428    2       15.84936073      18.29706624       7.05353427
     429    2       18.00945073      20.10102624       5.71968427
     430    2       19.57983073      17.70110624       3.38970427
     431    2       16.28320073      15.78845624       5.55189427
     432    2       14.71289073      18.18827624       7.88188427
     433    3       17.75999073      20.67066624       6.78419427
     434    3       19.10422073      20.13466624       5.14915427
     435    3       19.50485073      18.44499624       2.41007427
     436    3       20.56555073      17.02592624       3.69666427
     437    3       16.53259073      15.21884624       4.48734427
     438    3       15.18842073      15.75486624       6.12241427
     439    3       14.78786073      17.44437624       8.86150427
     440    3       13.72715073      18.86340624       7.57488427
     441    4       15.39038073      20.15409624       6.19419427
     442    4       14.99334073      18.78192624       5.19907427
     443    4       17.47365073      19.14436624       3.10885427
     444    4       16.45046073      17.89256624       3.74550427
     445    4       19.29940073      17.10735624       6.07251427
     446    4       18.90225073      15.73527624       5.07732427
     447    4       17.84230073      17.99683624       7.52603427
     448    4       16.81912073      16.74506624       8.16274427
     449    1       22.37563875      14.04287624       1.63388471
     450    1       20.80480875      13.38004624       3.53095471